# vtk DataFile Version 2.0
FEM Result File
ASCII
DATASET UNSTRUCTURED_GRID

POINTS 303 double
10 0 0
10 0.22 0
10 0.43 0
10 0.63 0
10 0.82 0
10 1 0
9.78 1 0
9.56011 1 0
9.34034 1 0
9.12068 1 0
8.90113 1 0
8.6817 1 0
8.46238 1 0
8.24318 1 0
8.02408 1 0
7.8051 1 0
7.58624 1 0
7.36749 1 0
7.14885 1 0
6.93032 1 0
6.71191 1 0
6.49361 1 0
6.27543 1 0
6.05735 1 0
5.8394 1 0
5.62155 1 0
5.40382 1 0
5.1862 1 0
4.9687 1 0
4.75142 1 0
4.53425 1 0
4.3172 1 0
4.10026 1 0
3.88344 1 0
3.66673 1 0
3.45013 1 0
3.23365 1 0
3.01728 1 0
2.80102 1 0
2.58488 1 0
2.36885 1 0
2.15293 1 0
1.93713 1 0
1.72144 1 0
1.50586 1 0
1.2904 1 0
1.07505 1 0
0.859811 1 0
0.644688 1 0
0.429679 1 0
0.214783 1 0
0 1 0
0 0.78 0
0 0.57 0
0 0.37 0
0 0.18 0
0 0 0
0.22 0 0
0.439887 0 0
0.65966 0 0
0.879319 0 0
1.09887 0 0
1.3183 0 0
1.53762 0 0
1.75682 0 0
1.97592 0 0
2.1949 0 0
2.41376 0 0
2.63251 0 0
2.85115 0 0
3.06968 0 0
3.28809 0 0
3.50639 0 0
3.72457 0 0
3.94265 0 0
4.1606 0 0
4.37845 0 0
4.59618 0 0
4.8138 0 0
5.0313 0 0
5.24858 0 0
5.46575 0 0
5.6828 0 0
5.89974 0 0
6.11656 0 0
6.33327 0 0
6.54987 0 0
6.76635 0 0
6.98272 0 0
7.19898 0 0
7.41512 0 0
7.63115 0 0
7.84707 0 0
8.06287 0 0
8.27856 0 0
8.49414 0 0
8.7096 0 0
8.92495 0 0
9.14019 0 0
9.35531 0 0
9.57032 0 0
9.78522 0 0
0.168906 0.48067 0
9.8111 0.53223 0
9.47145 0.814165 0
0.571676 0.198441 0
9.02691 0.180418 0
0.984636 0.775202 0
1.41259 0.838878 0
8.59794 0.17429 0
8.16691 0.17344 0
1.83498 0.843166 0
7.73834 0.174866 0
2.25011 0.845215 0
7.31346 0.183116 0
2.67297 0.808367 0
3.10276 0.813038 0
6.88307 0.192954 0
3.54025 0.797574 0
6.44909 0.195958 0
3.97864 0.796859 0
6.01513 0.196411 0
4.41355 0.796704 0
5.58097 0.196502 0
4.84818 0.796637 0
0.513164 0.800857 0
9.46643 0.193401 0
5.14648 0.196568 0
1.21433 0.180804 0
8.79095 0.837321 0
1.64461 0.176972 0
8.35958 0.839157 0
2.0797 0.180863 0
7.92618 0.83829 0
7.50554 0.824884 0
2.52326 0.192149 0
2.96493 0.190193 0
7.03411 0.78768 0
3.40057 0.195487 0
6.58985 0.795437 0
3.83986 0.196752 0
6.15362 0.796379 0
4.27622 0.196696 0
5.71822 0.796508 0
5.28307 0.796576 0
4.71157 0.196627 0
0.367388 0.209821 0
9.65079 0.843875 0
9.23156 0.782037 0
0.785375 0.192501 0
9.00164 0.828606 0
1.00022 0.186226 0
1.4288 0.177787 0
8.5765 0.838949 0
8.14224 0.838974 0
1.86164 0.177859 0
2.29982 0.186615 0
7.71341 0.835753 0
7.28278 0.771395 0
2.74657 0.192174 0
3.18146 0.192377 0
6.80949 0.793392 0
6.37153 0.796144 0
3.62066 0.196535 0
4.05826 0.196742 0
5.93588 0.796463 0
5.50062 0.796543 0
4.49396 0.196658 0
7.09921 0.188858 0
2.89572 0.814811 0
7.52594 0.17788 0
2.45262 0.827825 0
3.31721 0.799977 0
6.66612 0.195063 0
7.95199 0.173716 0
2.04569 0.844958 0
8.38247 0.173603 0
1.62274 0.84166 0
1.2067 0.828081 0
8.81267 0.176144 0
9.24331 0.187523 0
0.738037 0.791909 0
0.30284 0.823232 0
9.68474 0.177476 0
3.76033 0.797047 0
6.23212 0.196291 0
5.79808 0.196464 0
4.19622 0.79676 0
5.36377 0.196536 0
4.63085 0.796667 0
4.92908 0.196598 0
5.06559 0.796608 0
0.161619 0.684619 0
9.82601 0.318722 0
0.177874 0.271984 0
9.81202 0.747322 0
9.8595 0.143228 0
0.135765 0.857593 0
9.59707 0.409489 0
0.363284 0.595916 0
0.602849 0.59305 0
0.826723 0.580342 0
9.34184 0.38546 0
9.12227 0.364592 0
8.91168 0.352055 0
8.70002 0.347141 0
8.48567 0.345373 0
8.27014 0.344777 0
8.05519 0.34476 0
7.84248 0.345586 0
7.63344 0.34876 0
7.42701 0.357973 0
7.21786 0.372418 0
7.00267 0.384264 0
6.78457 0.390258 0
6.56663 0.392819 0
6.34914 0.393787 0
6.13186 0.394125 0
5.91463 0.394253 0
5.69739 0.394323 0
5.48011 0.39438 0
5.26278 0.394433 0
5.04539 0.394484 0
4.82796 0.394531 0
4.61046 0.394579 0
4.39288 0.394635 0
4.17512 0.394711 0
3.9569 0.394801 0
3.7376 0.394796 0
3.51612 0.394251 0
3.29144 0.391476 0
3.07448 0.378461 0
2.86625 0.379139 0
2.64084 0.392141 0
2.40497 0.381878 0
2.18084 0.363717 0
1.96375 0.354731 0
1.74849 0.351245 0
1.53509 0.350896 0
1.32514 0.353817 0
1.11816 0.363094 0
0.909302 0.377803 0
0.69586 0.390295 0
1.03621 0.549772 0
1.2305 0.524023 0
1.42924 0.519271 0
1.63711 0.519154 0
1.849 0.52155 0
2.06117 0.528446 0
2.2731 0.547059 0
2.50967 0.608736 0
2.79296 0.599267 0
2.97731 0.523979 0
3.16582 0.595525 0
3.4111 0.595195 0
3.63683 0.595084 0
3.8573 0.594938 0
4.07583 0.594795 0
4.29361 0.59469 0
4.51112 0.594621 0
4.72855 0.59457 0
4.94597 0.594523 0
5.1634 0.594474 0
5.38083 0.594422 0
5.59825 0.594367 0
5.81569 0.594305 0
6.03313 0.594214 0
6.25066 0.594001 0
6.46842 0.593379 0
6.68688 0.591587 0
6.90703 0.586779 0
7.12986 0.574566 0
7.34082 0.544047 0
7.53618 0.518123 0
7.73518 0.513254 0
7.94353 0.512461 0
8.15699 0.512505 0
8.37246 0.512847 0
8.58729 0.513676 0
8.79813 0.515994 0
9.00027 0.523763 0
0.312041 0.391143 0
9.62709 0.65799 0
9.41293 0.600899 0
9.19804 0.555471 0
0.484854 0.396709 0
8.89247 0.67676 0
1.15563 0.672148 0
8.68763 0.677408 0
9.06669 0.673787 0
1.32594 0.678408 0
8.47413 0.677325 0
1.52673 0.681206 0
8.25812 0.677078 0
1.73608 0.683157 0
8.04276 0.676669 0
1.9466 0.686435 0
7.83109 0.675726 0
2.15117 0.693164 0
7.62901 0.67315 0
2.32777 0.704552 0
7.45786 0.666891 0
2.98695 0.669054 0

CELLS 502 2008
3 196 0 1 
3 183 196 193 
3 103 2 3 
3 282 103 195 
3 6 4 5 
3 195 6 147 
3 282 195 147 
3 147 6 7 
3 8 148 104 
3 8 9 148 
3 205 179 204 
3 153 129 11 
3 207 176 206 
3 154 131 13 
3 209 174 208 
3 157 133 15 
3 211 170 210 
3 158 134 17 
3 212 272 271 
3 161 137 19 
3 214 270 269 
3 162 139 21 
3 216 268 267 
3 165 141 23 
3 218 266 265 
3 166 143 25 
3 220 264 263 
3 222 127 221 
3 124 28 29 
3 189 30 122 
3 122 30 31 
3 187 32 120 
3 120 32 33 
3 184 34 118 
3 118 34 35 
3 172 36 116 
3 116 36 37 
3 169 38 115 
3 115 38 39 
3 39 171 115 
3 113 40 41 
3 41 175 113 
3 111 42 43 
3 43 177 111 
3 108 44 45 
3 45 178 108 
3 107 46 47 
3 244 287 243 
3 192 53 102 
3 197 50 51 
3 49 182 125 
3 182 197 192 
3 197 52 192 
3 102 53 54 
3 281 102 194 
3 57 55 56 
3 194 57 146 
3 146 57 58 
3 59 149 105 
3 59 60 149 
3 239 245 244 
3 152 128 62 
3 237 247 246 
3 155 130 64 
3 235 249 248 
3 156 132 66 
3 233 251 250 
3 159 135 68 
3 232 136 231 
3 160 136 70 
3 230 138 229 
3 163 138 72 
3 228 140 227 
3 164 140 74 
3 226 142 225 
3 167 142 76 
3 224 145 223 
3 190 79 127 
3 190 78 79 
3 188 81 123 
3 188 80 81 
3 186 123 82 
3 186 82 83 
3 185 121 84 
3 185 84 85 
3 173 119 86 
3 173 86 87 
3 168 117 88 
3 168 88 89 
3 90 170 114 
3 170 90 91 
3 92 174 112 
3 174 92 93 
3 94 176 110 
3 176 94 95 
3 96 179 109 
3 179 96 97 
3 204 106 203 
3 180 106 98 
3 100 183 126 
3 281 194 146 
3 125 48 49 
3 126 99 100 
3 196 1 193 
3 193 2 103 
3 7 8 104 
3 58 59 105 
3 181 107 47 
3 106 97 98 
3 289 286 280 
3 240 244 243 
3 178 45 46 
3 238 246 245 
3 177 43 44 
3 109 95 96 
3 207 110 176 
3 110 93 94 
3 209 112 174 
3 236 248 247 
3 175 41 42 
3 112 91 92 
3 211 114 170 
3 234 250 249 
3 171 39 40 
3 114 89 90 
3 213 117 168 
3 232 252 251 
3 169 37 38 
3 230 254 253 
3 172 35 36 
3 117 87 88 
3 215 119 173 
3 228 256 255 
3 184 33 34 
3 119 85 86 
3 217 121 185 
3 226 258 257 
3 187 31 32 
3 121 83 84 
3 219 123 186 
3 224 260 259 
3 189 29 30 
3 123 81 82 
3 221 127 188 
3 222 262 261 
3 191 27 28 
3 146 285 281 
3 181 47 48 
3 282 147 104 
3 180 98 99 
3 127 79 80 
3 191 28 124 
3 151 60 61 
3 128 61 62 
3 150 9 10 
3 129 10 11 
3 152 62 63 
3 130 63 64 
3 153 11 12 
3 131 12 13 
3 155 64 65 
3 132 65 66 
3 154 13 14 
3 133 14 15 
3 157 15 16 
3 134 16 17 
3 156 66 67 
3 135 67 68 
3 159 68 69 
3 136 69 70 
3 158 17 18 
3 137 18 19 
3 160 70 71 
3 138 71 72 
3 161 19 20 
3 139 20 21 
3 163 72 73 
3 140 73 74 
3 162 21 22 
3 141 22 23 
3 164 74 75 
3 142 75 76 
3 165 23 24 
3 143 24 25 
3 166 25 26 
3 144 26 27 
3 167 76 77 
3 145 77 78 
3 194 55 57 
3 146 58 105 
3 195 4 6 
3 147 7 104 
3 203 106 180 
3 9 150 148 
3 201 107 181 
3 60 151 149 
3 284 289 280 
3 150 10 129 
3 243 201 241 
3 151 61 128 
3 240 151 128 
3 152 63 130 
3 205 279 278 
3 153 12 131 
3 207 277 276 
3 154 14 133 
3 238 152 130 
3 155 65 132 
3 236 155 132 
3 156 67 135 
3 209 275 274 
3 157 16 134 
3 211 273 272 
3 158 18 137 
3 234 156 135 
3 159 69 136 
3 232 159 136 
3 160 71 138 
3 213 271 270 
3 161 20 139 
3 215 269 268 
3 162 22 141 
3 230 160 138 
3 163 73 140 
3 228 163 140 
3 164 75 142 
3 217 267 266 
3 165 24 143 
3 219 265 264 
3 166 26 144 
3 226 164 142 
3 167 77 145 
3 168 89 114 
3 213 168 212 
3 231 253 252 
3 169 116 37 
3 170 91 112 
3 210 274 273 
3 171 40 113 
3 234 135 233 
3 229 255 254 
3 172 118 35 
3 173 87 117 
3 215 173 214 
3 174 93 110 
3 208 276 275 
3 175 42 111 
3 236 132 235 
3 176 95 109 
3 206 278 277 
3 177 44 108 
3 238 130 237 
3 178 46 107 
3 241 149 151 
3 179 97 106 
3 286 288 279 
3 180 99 126 
3 284 203 202 
3 181 48 125 
3 200 285 242 
3 182 199 125 
3 49 50 182 
3 183 198 126 
3 100 101 183 
3 227 257 256 
3 184 120 33 
3 185 85 119 
3 217 185 216 
3 186 83 121 
3 219 186 218 
3 225 259 258 
3 187 122 31 
3 221 188 220 
3 188 127 80 
3 223 261 260 
3 189 124 29 
3 224 167 145 
3 190 145 78 
3 221 263 262 
3 191 144 27 
3 192 199 182 
3 52 53 192 
3 193 198 183 
3 1 2 193 
3 102 54 194 
3 194 54 55 
3 103 3 195 
3 195 3 4 
3 183 101 196 
3 196 101 0 
3 182 50 197 
3 197 51 52 
3 202 180 126 
3 193 103 198 
3 200 181 125 
3 192 102 199 
3 200 125 199 
3 201 200 242 
3 201 181 200 
3 201 242 241 
3 202 126 198 
3 283 148 284 
3 203 180 202 
3 284 280 203 
3 205 109 179 
3 204 179 106 
3 279 288 278 
3 206 176 109 
3 206 109 205 
3 278 291 277 
3 277 293 276 
3 208 174 110 
3 208 110 207 
3 276 295 275 
3 275 297 274 
3 210 170 112 
3 210 112 209 
3 274 299 273 
3 273 301 272 
3 212 168 114 
3 212 114 211 
3 272 158 271 
3 271 137 270 
3 214 173 117 
3 214 117 213 
3 270 161 269 
3 269 139 268 
3 216 185 119 
3 216 119 215 
3 268 162 267 
3 267 141 266 
3 218 186 121 
3 218 121 217 
3 266 165 265 
3 265 143 264 
3 220 188 123 
3 220 123 219 
3 264 166 263 
3 263 144 262 
3 222 190 127 
3 262 191 261 
3 223 145 190 
3 223 190 222 
3 261 124 260 
3 260 189 259 
3 225 142 167 
3 225 167 224 
3 259 122 258 
3 258 187 257 
3 227 140 164 
3 227 164 226 
3 257 120 256 
3 256 184 255 
3 229 138 163 
3 229 163 228 
3 255 118 254 
3 254 172 253 
3 231 136 160 
3 231 160 230 
3 253 302 252 
3 302 169 251 
3 233 135 159 
3 233 159 232 
3 251 115 250 
3 250 300 249 
3 235 132 156 
3 235 156 234 
3 249 298 248 
3 248 296 247 
3 237 130 155 
3 237 155 236 
3 247 294 246 
3 246 292 245 
3 239 128 152 
3 239 152 238 
3 245 290 244 
3 240 128 239 
3 243 241 240 
3 242 105 149 
3 241 151 240 
3 146 105 285 
3 242 149 241 
3 287 107 243 
3 243 107 201 
3 240 239 244 
3 290 287 244 
3 239 238 245 
3 292 290 245 
3 238 237 246 
3 294 292 246 
3 237 236 247 
3 296 294 247 
3 236 235 248 
3 298 296 248 
3 235 234 249 
3 300 298 249 
3 234 233 250 
3 115 171 250 
3 233 232 251 
3 169 115 251 
3 232 231 252 
3 302 251 252 
3 231 230 253 
3 172 116 253 
3 230 229 254 
3 118 172 254 
3 229 228 255 
3 184 118 255 
3 228 227 256 
3 120 184 256 
3 227 226 257 
3 187 120 257 
3 226 225 258 
3 122 187 258 
3 225 224 259 
3 189 122 259 
3 224 223 260 
3 124 189 260 
3 223 222 261 
3 191 124 261 
3 222 221 262 
3 144 191 262 
3 221 220 263 
3 166 144 263 
3 220 219 264 
3 143 166 264 
3 219 218 265 
3 165 143 265 
3 218 217 266 
3 141 165 266 
3 217 216 267 
3 162 141 267 
3 216 215 268 
3 139 162 268 
3 215 214 269 
3 161 139 269 
3 214 213 270 
3 137 161 270 
3 213 212 271 
3 158 137 271 
3 212 211 272 
3 301 158 272 
3 211 210 273 
3 299 301 273 
3 210 209 274 
3 297 299 274 
3 209 208 275 
3 295 297 275 
3 208 207 276 
3 293 295 276 
3 207 206 277 
3 291 293 277 
3 206 205 278 
3 288 291 278 
3 205 204 279 
3 286 150 129 
3 280 279 204 
3 280 204 203 
3 200 199 285 
3 281 199 102 
3 283 202 198 
3 282 198 103 
3 283 198 282 
3 283 282 104 
3 284 202 283 
3 283 104 148 
3 285 199 281 
3 105 242 285 
3 286 279 280 
3 289 150 286 
3 290 178 287 
3 287 178 107 
3 286 129 288 
3 288 129 153 
3 284 148 289 
3 289 148 150 
3 292 108 290 
3 290 108 178 
3 288 153 291 
3 291 153 131 
3 294 177 292 
3 292 177 108 
3 291 131 293 
3 293 131 154 
3 296 111 294 
3 294 111 177 
3 293 154 295 
3 295 154 133 
3 298 175 296 
3 296 175 111 
3 295 133 297 
3 297 133 157 
3 300 113 298 
3 298 113 175 
3 297 157 299 
3 299 157 134 
3 250 171 300 
3 300 171 113 
3 299 134 301 
3 301 134 158 
3 253 116 302 
3 302 116 169 

CELL_TYPES 502
5
5
5
5
5
5
5
5
5
5
5
5
5
5
5
5
5
5
5
5
5
5
5
5
5
5
5
5
5
5
5
5
5
5
5
5
5
5
5
5
5
5
5
5
5
5
5
5
5
5
5
5
5
5
5
5
5
5
5
5
5
5
5
5
5
5
5
5
5
5
5
5
5
5
5
5
5
5
5
5
5
5
5
5
5
5
5
5
5
5
5
5
5
5
5
5
5
5
5
5
5
5
5
5
5
5
5
5
5
5
5
5
5
5
5
5
5
5
5
5
5
5
5
5
5
5
5
5
5
5
5
5
5
5
5
5
5
5
5
5
5
5
5
5
5
5
5
5
5
5
5
5
5
5
5
5
5
5
5
5
5
5
5
5
5
5
5
5
5
5
5
5
5
5
5
5
5
5
5
5
5
5
5
5
5
5
5
5
5
5
5
5
5
5
5
5
5
5
5
5
5
5
5
5
5
5
5
5
5
5
5
5
5
5
5
5
5
5
5
5
5
5
5
5
5
5
5
5
5
5
5
5
5
5
5
5
5
5
5
5
5
5
5
5
5
5
5
5
5
5
5
5
5
5
5
5
5
5
5
5
5
5
5
5
5
5
5
5
5
5
5
5
5
5
5
5
5
5
5
5
5
5
5
5
5
5
5
5
5
5
5
5
5
5
5
5
5
5
5
5
5
5
5
5
5
5
5
5
5
5
5
5
5
5
5
5
5
5
5
5
5
5
5
5
5
5
5
5
5
5
5
5
5
5
5
5
5
5
5
5
5
5
5
5
5
5
5
5
5
5
5
5
5
5
5
5
5
5
5
5
5
5
5
5
5
5
5
5
5
5
5
5
5
5
5
5
5
5
5
5
5
5
5
5
5
5
5
5
5
5
5
5
5
5
5
5
5
5
5
5
5
5
5
5
5
5
5
5
5
5
5
5
5
5
5
5
5
5
5
5
5
5
5
5
5
5
5
5
5
5
5
5
5
5
5
5
5
5
5
5
5
5
5
5
5
5
5
5
5
5
5
5
5
5
5
5
5
5
5
5
5
5
5
5
5
5
5
5
5
5
5
5
5
5
5
5
5
5
5
5
5
5
5
5
5
5
5
5
5
5
5
5
5
5
5
5
5
5
5
5
5
5

POINT_DATA 303

SCALARS Coor(m) double 3

LOOKUP_TABLE default
10 0 0
10 0.22 0
10 0.43 0
10 0.63 0
10 0.82 0
10 1 0
9.78 1 0
9.56011 1 0
9.34034 1 0
9.12068 1 0
8.90113 1 0
8.6817 1 0
8.46238 1 0
8.24318 1 0
8.02408 1 0
7.8051 1 0
7.58624 1 0
7.36749 1 0
7.14885 1 0
6.93032 1 0
6.71191 1 0
6.49361 1 0
6.27543 1 0
6.05735 1 0
5.8394 1 0
5.62155 1 0
5.40382 1 0
5.1862 1 0
4.9687 1 0
4.75142 1 0
4.53425 1 0
4.3172 1 0
4.10026 1 0
3.88344 1 0
3.66673 1 0
3.45013 1 0
3.23365 1 0
3.01728 1 0
2.80102 1 0
2.58488 1 0
2.36885 1 0
2.15293 1 0
1.93713 1 0
1.72144 1 0
1.50586 1 0
1.2904 1 0
1.07505 1 0
0.859811 1 0
0.644688 1 0
0.429679 1 0
0.214783 1 0
0 1 0
0 0.78 0
0 0.57 0
0 0.37 0
0 0.18 0
0 0 0
0.22 0 0
0.439887 0 0
0.65966 0 0
0.879319 0 0
1.09887 0 0
1.3183 0 0
1.53762 0 0
1.75682 0 0
1.97592 0 0
2.1949 0 0
2.41376 0 0
2.63251 0 0
2.85115 0 0
3.06968 0 0
3.28809 0 0
3.50639 0 0
3.72457 0 0
3.94265 0 0
4.1606 0 0
4.37845 0 0
4.59618 0 0
4.8138 0 0
5.0313 0 0
5.24858 0 0
5.46575 0 0
5.6828 0 0
5.89974 0 0
6.11656 0 0
6.33327 0 0
6.54987 0 0
6.76635 0 0
6.98272 0 0
7.19898 0 0
7.41512 0 0
7.63115 0 0
7.84707 0 0
8.06287 0 0
8.27856 0 0
8.49414 0 0
8.7096 0 0
8.92495 0 0
9.14019 0 0
9.35531 0 0
9.57032 0 0
9.78522 0 0
0.168906 0.48067 0
9.8111 0.53223 0
9.47145 0.814165 0
0.571676 0.198441 0
9.02691 0.180418 0
0.984636 0.775202 0
1.41259 0.838878 0
8.59794 0.17429 0
8.16691 0.17344 0
1.83498 0.843166 0
7.73834 0.174866 0
2.25011 0.845215 0
7.31346 0.183116 0
2.67297 0.808367 0
3.10276 0.813038 0
6.88307 0.192954 0
3.54025 0.797574 0
6.44909 0.195958 0
3.97864 0.796859 0
6.01513 0.196411 0
4.41355 0.796704 0
5.58097 0.196502 0
4.84818 0.796637 0
0.513164 0.800857 0
9.46643 0.193401 0
5.14648 0.196568 0
1.21433 0.180804 0
8.79095 0.837321 0
1.64461 0.176972 0
8.35958 0.839157 0
2.0797 0.180863 0
7.92618 0.83829 0
7.50554 0.824884 0
2.52326 0.192149 0
2.96493 0.190193 0
7.03411 0.78768 0
3.40057 0.195487 0
6.58985 0.795437 0
3.83986 0.196752 0
6.15362 0.796379 0
4.27622 0.196696 0
5.71822 0.796508 0
5.28307 0.796576 0
4.71157 0.196627 0
0.367388 0.209821 0
9.65079 0.843875 0
9.23156 0.782037 0
0.785375 0.192501 0
9.00164 0.828606 0
1.00022 0.186226 0
1.4288 0.177787 0
8.5765 0.838949 0
8.14224 0.838974 0
1.86164 0.177859 0
2.29982 0.186615 0
7.71341 0.835753 0
7.28278 0.771395 0
2.74657 0.192174 0
3.18146 0.192377 0
6.80949 0.793392 0
6.37153 0.796144 0
3.62066 0.196535 0
4.05826 0.196742 0
5.93588 0.796463 0
5.50062 0.796543 0
4.49396 0.196658 0
7.09921 0.188858 0
2.89572 0.814811 0
7.52594 0.17788 0
2.45262 0.827825 0
3.31721 0.799977 0
6.66612 0.195063 0
7.95199 0.173716 0
2.04569 0.844958 0
8.38247 0.173603 0
1.62274 0.84166 0
1.2067 0.828081 0
8.81267 0.176144 0
9.24331 0.187523 0
0.738037 0.791909 0
0.30284 0.823232 0
9.68474 0.177476 0
3.76033 0.797047 0
6.23212 0.196291 0
5.79808 0.196464 0
4.19622 0.79676 0
5.36377 0.196536 0
4.63085 0.796667 0
4.92908 0.196598 0
5.06559 0.796608 0
0.161619 0.684619 0
9.82601 0.318722 0
0.177874 0.271984 0
9.81202 0.747322 0
9.8595 0.143228 0
0.135765 0.857593 0
9.59707 0.409489 0
0.363284 0.595916 0
0.602849 0.59305 0
0.826723 0.580342 0
9.34184 0.38546 0
9.12227 0.364592 0
8.91168 0.352055 0
8.70002 0.347141 0
8.48567 0.345373 0
8.27014 0.344777 0
8.05519 0.34476 0
7.84248 0.345586 0
7.63344 0.34876 0
7.42701 0.357973 0
7.21786 0.372418 0
7.00267 0.384264 0
6.78457 0.390258 0
6.56663 0.392819 0
6.34914 0.393787 0
6.13186 0.394125 0
5.91463 0.394253 0
5.69739 0.394323 0
5.48011 0.39438 0
5.26278 0.394433 0
5.04539 0.394484 0
4.82796 0.394531 0
4.61046 0.394579 0
4.39288 0.394635 0
4.17512 0.394711 0
3.9569 0.394801 0
3.7376 0.394796 0
3.51612 0.394251 0
3.29144 0.391476 0
3.07448 0.378461 0
2.86625 0.379139 0
2.64084 0.392141 0
2.40497 0.381878 0
2.18084 0.363717 0
1.96375 0.354731 0
1.74849 0.351245 0
1.53509 0.350896 0
1.32514 0.353817 0
1.11816 0.363094 0
0.909302 0.377803 0
0.69586 0.390295 0
1.03621 0.549772 0
1.2305 0.524023 0
1.42924 0.519271 0
1.63711 0.519154 0
1.849 0.52155 0
2.06117 0.528446 0
2.2731 0.547059 0
2.50967 0.608736 0
2.79296 0.599267 0
2.97731 0.523979 0
3.16582 0.595525 0
3.4111 0.595195 0
3.63683 0.595084 0
3.8573 0.594938 0
4.07583 0.594795 0
4.29361 0.59469 0
4.51112 0.594621 0
4.72855 0.59457 0
4.94597 0.594523 0
5.1634 0.594474 0
5.38083 0.594422 0
5.59825 0.594367 0
5.81569 0.594305 0
6.03313 0.594214 0
6.25066 0.594001 0
6.46842 0.593379 0
6.68688 0.591587 0
6.90703 0.586779 0
7.12986 0.574566 0
7.34082 0.544047 0
7.53618 0.518123 0
7.73518 0.513254 0
7.94353 0.512461 0
8.15699 0.512505 0
8.37246 0.512847 0
8.58729 0.513676 0
8.79813 0.515994 0
9.00027 0.523763 0
0.312041 0.391143 0
9.62709 0.65799 0
9.41293 0.600899 0
9.19804 0.555471 0
0.484854 0.396709 0
8.89247 0.67676 0
1.15563 0.672148 0
8.68763 0.677408 0
9.06669 0.673787 0
1.32594 0.678408 0
8.47413 0.677325 0
1.52673 0.681206 0
8.25812 0.677078 0
1.73608 0.683157 0
8.04276 0.676669 0
1.9466 0.686435 0
7.83109 0.675726 0
2.15117 0.693164 0
7.62901 0.67315 0
2.32777 0.704552 0
7.45786 0.666891 0
2.98695 0.669054 0

VECTORS Displace double
0 0 0
0 0 0
0 0 0
0 0 0
0 0 0
0 0 0
0.00132791 0.000892832 0
0.00301478 0.00248087 0
0.00398541 0.00426998 0
0.00459125 0.00656585 0
0.00534908 0.00928919 0
0.00595258 0.0122485 0
0.00635989 0.0153666 0
0.00658151 0.0185941 0
0.00663187 0.0218639 0
0.00652301 0.0251146 0
0.00626567 0.0283037 0
0.00590202 0.0313407 0
0.00562149 0.0341288 0
0.00524513 0.0367038 0
0.00478925 0.0390867 0
0.00427056 0.0412423 0
0.00370145 0.0431452 0
0.00309094 0.0447757 0
0.00244655 0.0461173 0
0.00177544 0.047157 0
0.0010848 0.0478848 0
0.000381905 0.0482941 0
0.000325905 0.0483816 0
0.00103159 0.0481472 0
0.0017275 0.0475942 0
0.00240621 0.046729 0
0.00306002 0.0455613 0
0.00368073 0.0441046 0
0.00425968 0.0423774 0
0.0047903 0.0404037 0
0.00528232 0.0381912 0
0.0058005 0.0356678 0
0.00620776 0.0330139 0
0.00648768 0.0302537 0
0.00676719 0.0272972 0
0.00696789 0.0241565 0
0.00700263 0.020968 0
0.00687044 0.0177924 0
0.00656198 0.0146822 0
0.00606976 0.0116755 0
0.0054415 0.00886774 0
0.00495955 0.00643465 0
0.00431983 0.00434654 0
0.00351886 0.00255912 0
0.00232425 0.00125349 0
0 0 0
0 0 0
0 0 0
0 0 0
0 0 0
0 0 0
0.0015505 0.00104074 0
0.00260665 0.0025921 0
0.0035619 0.00444227 0
0.0043907 0.00663777 0
0.00511656 0.00918644 0
0.00571399 0.0120441 0
0.00614528 0.0151212 0
0.00640987 0.0183215 0
0.00651589 0.0215745 0
0.0064694 0.0248005 0
0.00629858 0.0279106 0
0.00605333 0.0308675 0
0.00573885 0.0336764 0
0.00532783 0.0363321 0
0.00484416 0.0387711 0
0.00433271 0.0409438 0
0.00378181 0.0428693 0
0.00318749 0.0445338 0
0.00255434 0.0459177 0
0.0018899 0.047005 0
0.00120219 0.0477839 0
0.000499124 0.0482464 0
0.000211585 0.0483881 0
0.000922671 0.0482078 0
0.00162634 0.0477077 0
0.00231511 0.0468929 0
0.00298138 0.0457719 0
0.00361732 0.0443561 0
0.00421504 0.0426608 0
0.00476709 0.0407048 0
0.00526834 0.0385113 0
0.00571984 0.0361044 0
0.00613238 0.0334928 0
0.00650492 0.0306718 0
0.00680166 0.0276582 0
0.00698059 0.0245086 0
0.00702622 0.0212953 0
0.0069319 0.018078 0
0.00668987 0.0149134 0
0.00629147 0.0118603 0
0.00572947 0.00898831 0
0.00501842 0.00639516 0
0.00421771 0.00417466 0
0.0033599 0.00238775 0
0.00219088 0.00114955 0
4.68287e-05 0.000597331 0
3.4187e-05 0.00060855 0
0.00205653 0.0030107 0
0.0017039 0.00353678 0
0.00336132 0.00761585 0
0.00279603 0.00769974 0
0.00425485 0.0133073 0
0.00416462 0.0133714 0
0.00451148 0.0197263 0
0.00475147 0.019443 0
0.004451 0.0261272 0
0.00473771 0.0256017 0
0.00400913 0.0320764 0
0.00399242 0.0314214 0
0.00347027 0.0367879 0
0.00341849 0.0372989 0
0.00276071 0.0413286 0
0.00278591 0.041725 0
0.00206927 0.0448705 0
0.00206485 0.0451456 0
0.00130214 0.047251 0
0.00126545 0.0474127 0
0.000489171 0.0483949 0
0.00231361 0.00308872 0
0.00227273 0.00307024 0
0.000421241 0.0484345 0
0.00322828 0.0105734 0
0.00362489 0.0106804 0
0.00382798 0.0166358 0
0.00422372 0.0168418 0
0.00395175 0.0231146 0
0.00429345 0.0233334 0
0.00378371 0.0294992 0
0.0036506 0.0294431 0
0.00330072 0.035138 0
0.00297981 0.0355541 0
0.00268295 0.03999 0
0.00254501 0.0403976 0
0.00201467 0.0438676 0
0.00189193 0.0441798 0
0.00125501 0.0466275 0
0.00114192 0.0468319 0
0.000336799 0.0482547 0
0.000431011 0.0481695 0
0.0010267 0.00189432 0
0.00138622 0.00159787 0
0.00214061 0.00523507 0
0.00225845 0.00554511 0
0.00303425 0.0078988 0
0.00276594 0.00789765 0
0.00358801 0.0135175 0
0.00400064 0.0136752 0
0.00431889 0.0200907 0
0.00394992 0.0198566 0
0.00383232 0.0263354 0
0.00413673 0.0264866 0
0.00293328 0.0325029 0
0.00349835 0.0323868 0
0.00299582 0.0376858 0
0.00280751 0.038115 0
0.00223431 0.0424226 0
0.00236048 0.0420604 0
0.00164508 0.0453944 0
0.00152602 0.0456542 0
0.000744088 0.0477015 0
0.000848807 0.0475556 0
0.00371475 0.034778 0
0.00386724 0.0342346 0
0.00427261 0.029187 0
0.00435942 0.0285147 0
0.00307727 0.0391423 0
0.00311175 0.0396255 0
0.00453023 0.0229539 0
0.00481066 0.0225754 0
0.00439176 0.0165089 0
0.00457625 0.0163187 0
0.00371488 0.0104587 0
0.00382239 0.0103826 0
0.00281297 0.00515879 0
0.00268278 0.00512214 0
0.00192795 0.0015626 0
0.00186158 0.00150863 0
0.00242615 0.0432405 0
0.00243682 0.0435717 0
0.00167301 0.0464303 0
0.00169336 0.0462108 0
0.000846662 0.048083 0
0.000899399 0.0479815 0
6.16878e-06 0.0484634 0
7.56893e-05 0.0484864 0
0.000699465 0.000561454 0
0.000696981 0.000560354 0
0.000256552 0.000707768 0
0.000444496 0.000653719 0
0.000885692 0.000493345 0
0.000908498 0.000517179 0
0.000647812 0.0019746 0
0.000694896 0.00185898 0
0.000880428 0.00378811 0
0.000905109 0.00596834 0
0.000986605 0.00410079 0
0.00135852 0.00640288 0
0.00168677 0.00902061 0
0.00191899 0.0118935 0
0.00207601 0.0149654 0
0.00217004 0.0181628 0
0.00220806 0.0213989 0
0.00219066 0.02459 0
0.00210778 0.0276666 0
0.00192631 0.0305906 0
0.00167585 0.0333349 0
0.00146404 0.0359489 0
0.00130142 0.0384127 0
0.00116522 0.0406555 0
0.00103666 0.0426503 0
0.000906263 0.0443786 0
0.000770728 0.0458242 0
0.000629835 0.0469728 0
0.000484628 0.0478131 0
0.000336599 0.0483369 0
0.000187375 0.0485389 0
3.85586e-05 0.0484173 0
0.000108223 0.0479733 0
0.000251377 0.0472114 0
0.000389314 0.0461388 0
0.000520542 0.0447644 0
0.000644271 0.0430967 0
0.000762216 0.0411399 0
0.000885855 0.0389016 0
0.00109156 0.0365133 0
0.00120219 0.0339182 0
0.00109817 0.031018 0
0.0012566 0.0278496 0
0.00149823 0.0246146 0
0.0015957 0.0213699 0
0.00159086 0.0181503 0
0.00150655 0.0150145 0
0.00134727 0.0120344 0
0.00109785 0.00926945 0
0.000808755 0.00681356 0
0.00057716 0.00463098 0
0.000728162 0.00823625 0
0.000567209 0.0107326 0
0.000540771 0.013495 0
0.000550347 0.0164959 0
0.000586485 0.0196396 0
0.000673248 0.0228166 0
0.000890033 0.0259798 0
0.00160352 0.0293039 0
0.00142512 0.0329631 0
0.000478999 0.0353378 0
0.00113598 0.0375656 0
0.00104997 0.0401203 0
0.000946613 0.0422379 0
0.00083423 0.0440415 0
0.000716113 0.0455504 0
0.000593724 0.0467613 0
0.000467999 0.0476657 0
0.000339905 0.0482556 0
0.000210598 0.048525 0
8.1303e-05 0.048471 0
4.66733e-05 0.0480938 0
0.000172026 0.0473969 0
0.000293395 0.0463871 0
0.000409164 0.0450741 0
0.00051687 0.0434707 0
0.000611559 0.0415913 0
0.000681877 0.0394498 0
0.000701371 0.0370549 0
0.000611051 0.0344167 0
0.000303224 0.0317726 0
4.03036e-05 0.0290691 0
8.08265e-06 0.0261771 0
1.06055e-05 0.0230771 0
2.85046e-06 0.0198594 0
6.71508e-06 0.0166268 0
1.97842e-05 0.0134811 0
4.66904e-05 0.0105307 0
0.000112101 0.00786277 0
0.000265711 0.00148963 0
0.000714985 0.00172143 0
0.00054029 0.00346121 0
0.000302028 0.00552389 0
0.00039505 0.00278193 0
0.00170825 0.00928827 0
0.00199412 0.00974476 0
0.00191012 0.0120671 0
0.00142127 0.00705221 0
0.00228314 0.0120699 0
0.00204794 0.0151314 0
0.00248268 0.0148998 0
0.00212341 0.0183401 0
0.00261836 0.017962 0
0.00213799 0.0215839 0
0.00271262 0.0210969 0
0.00209193 0.0247567 0
0.00279554 0.0241427 0
0.00198228 0.0277215 0
0.00286839 0.0267625 0
0.00179661 0.0301825 0
0.00206208 0.0354347 0

SCALARS STRESS_X double 1
LOOKUP_TABLE default
8.40784e+08
5.15821e+08
1.74216e+08
1.48638e+08
4.34739e+08
6.28745e+08
6.02645e+08
4.59262e+08
3.57059e+07
2.05993e+08
5.37778e+08
1.31442e+09
4.4112e+08
1.66929e+09
3.56038e+08
1.97752e+09
9.94907e+07
1.78241e+09
3.07088e+08
2.41058e+09
7.12114e+08
2.79309e+09
7.78532e+08
3.00947e+09
8.03874e+08
3.14326e+09
8.1407e+08
3.20049e+09
8.11693e+08
3.18096e+09
8.00179e+08
3.08793e+09
7.84616e+08
2.93935e+09
8.10445e+08
2.81494e+09
9.10577e+08
2.62491e+09
7.14323e+08
5.07278e+08
7.2773e+08
4.11592e+08
4.13893e+08
3.61728e+08
3.60037e+08
3.70612e+08
2.85981e+08
5.83119e+08
3.82423e+08
3.20238e+08
7.16453e+08
8.92015e+08
5.51822e+08
2.10121e+08
8.36188e+07
4.40944e+08
7.3414e+08
5.15523e+08
2.95774e+08
4.76127e+07
1.78786e+08
5.10051e+08
1.21295e+09
4.61e+08
1.54776e+09
4.01248e+08
1.84733e+09
4.27115e+08
2.20067e+09
5.69654e+08
2.54717e+09
5.74517e+08
2.78395e+09
6.62799e+08
3.01883e+09
7.09846e+08
3.16684e+09
7.22911e+08
3.23208e+09
7.20917e+08
3.21813e+09
7.09498e+08
3.12656e+09
6.87067e+08
2.96178e+09
6.57634e+08
2.74251e+09
6.30147e+08
2.50498e+09
5.66863e+08
3.93547e+08
4.32933e+08
3.41238e+08
3.66674e+08
3.26042e+08
3.71018e+08
3.40544e+08
3.90745e+08
7.37411e+08
3.9081e+08
3.18069e+08
6.72819e+08
1.35094e+07
4.07928e+07
2.72126e+08
1.23271e+08
3.5394e+08
1.22633e+08
8.18432e+07
7.64779e+07
2.65447e+07
3.31913e+07
7.32937e+07
1.20404e+08
2.28803e+07
1.57703e+09
2.78606e+08
9.88518e+08
1.0458e+09
1.05451e+09
1.20613e+09
1.12806e+09
1.28335e+09
1.18423e+09
1.31631e+09
2.31535e+08
2.18949e+08
1.2157e+09
5.74157e+08
6.19868e+08
6.20817e+08
6.33126e+08
6.50047e+08
6.60999e+08
2.29397e+08
7.71069e+08
9.72376e+08
9.40049e+08
1.00271e+09
1.05233e+09
1.14103e+09
1.17118e+09
1.20124e+09
1.25811e+09
1.30725e+09
1.22236e+09
2.53185e+08
5.42241e+08
1.19503e+08
1.18008e+08
3.54371e+08
2.63619e+08
5.01448e+08
5.05374e+08
5.44072e+08
5.45923e+08
6.15293e+08
5.09176e+08
6.80267e+08
8.50909e+08
9.02177e+08
1.05172e+09
1.16329e+09
1.04428e+09
1.1437e+09
1.2522e+09
1.30499e+09
1.19628e+09
9.9972e+08
2.46684e+08
7.04598e+07
5.32777e+08
8.17186e+08
1.07066e+09
6.72253e+07
9.34769e+07
2.4343e+07
1.27256e+07
5.55524e+07
1.24613e+08
3.76929e+08
3.45652e+08
4.13066e+08
3.86326e+08
1.09365e+09
1.1374e+09
1.18974e+09
1.21953e+09
1.21773e+09
1.28958e+09
1.21965e+09
1.31809e+09
3.8182e+08
3.44567e+08
2.71936e+08
3.4967e+08
6.65428e+08
7.16765e+08
1.07165e+08
8.57785e+07
1.12953e+08
2.32573e+08
4.19918e+07
2.29207e+08
1.88102e+07
6.77176e+08
8.88862e+08
1.11067e+09
1.33342e+09
1.54745e+09
1.73945e+09
1.83291e+09
1.8333e+09
1.88387e+09
1.99925e+09
2.118e+09
2.22576e+09
2.31936e+09
2.39771e+09
2.46004e+09
2.50573e+09
2.53429e+09
2.54535e+09
2.53875e+09
2.51468e+09
2.4736e+09
2.41634e+09
2.34439e+09
2.25966e+09
2.16068e+09
2.00336e+09
2.14055e+09
2.02488e+09
1.53133e+09
1.47915e+09
1.47175e+09
1.30477e+09
1.09305e+09
8.76663e+08
6.72857e+08
2.14e+08
3.34354e+08
2.52115e+08
3.52165e+08
1.6215e+07
2.57536e+07
4.9463e+07
8.26497e+07
1.66029e+08
4.7158e+08
3.78057e+08
6.99823e+08
2.18687e+08
6.07689e+08
1.08548e+08
1.12657e+08
1.12427e+08
1.11879e+08
1.11697e+08
1.11766e+08
1.12041e+08
1.12658e+08
1.13738e+08
1.15199e+08
1.16901e+08
1.18791e+08
1.20939e+08
1.23728e+08
1.28589e+08
1.4056e+08
1.78996e+08
3.35709e+08
2.72847e+08
7.09518e+07
9.35279e+07
8.57503e+07
7.25287e+07
5.91427e+07
5.0205e+07
2.91502e+08
7.30237e+08
1.54752e+08
3.29981e+08
1.12345e+08
2.53952e+08
1.04755e+08
4.5034e+08
5.87416e+08
7.38846e+08
1.4176e+08
7.58998e+08
9.79021e+08
9.19764e+08
1.22733e+09
1.13573e+09
1.48475e+09
1.37509e+09
1.76752e+09
1.63517e+09
2.19328e+09
1.32743e+09
2.31034e+09
2.20957e+09

SCALARS STRESS_Y double 1
LOOKUP_TABLE default
7.78657e+07
1.91934e+06
5.60766e+07
1.23786e+08
1.83161e+08
1.25749e+08
3.50101e+08
5.49388e+08
1.63936e+09
3.04068e+08
1.27181e+09
5.52888e+09
1.55839e+09
8.06467e+09
1.83676e+09
1.02609e+10
1.13394e+09
9.53092e+09
2.13738e+09
1.28631e+10
4.51947e+09
1.50383e+10
5.05729e+09
1.62872e+10
5.31986e+09
1.70632e+10
5.44944e+09
1.73993e+10
5.45912e+09
1.72948e+10
5.36496e+09
1.67629e+10
5.19e+09
1.58906e+10
5.1558e+09
1.50814e+10
5.52941e+09
1.41405e+10
4.25368e+09
3.05745e+09
4.12526e+09
2.30216e+09
1.96752e+09
1.34701e+09
9.55942e+08
6.60395e+08
3.24325e+08
1.85432e+09
4.63917e+08
3.78388e+08
3.66461e+08
8.17938e+07
1.05817e+06
5.15071e+07
1.14449e+08
1.87518e+08
1.46828e+08
3.14944e+08
5.38115e+08
1.98532e+09
6.30632e+08
1.23467e+09
5.03392e+09
1.59941e+09
7.35364e+09
1.92675e+09
9.43144e+09
2.53229e+09
1.15433e+10
3.57078e+09
1.3634e+10
3.84573e+09
1.49679e+10
4.45064e+09
1.63146e+10
4.84019e+09
1.718e+10
4.99949e+09
1.7569e+10
5.0223e+09
1.75024e+10
4.9377e+09
1.69863e+10
4.73669e+09
1.60425e+10
4.43868e+09
1.4767e+10
4.10325e+09
1.33833e+10
3.6138e+09